VARIABLES = "X", "Y", "xhi_csi", "xhi_eta", "xhj_csi", "xhj_eta", "JacobianHi", "JacobianHj"
ZONE I=161, J=60, F=POINT
21.000000 0.000000 1.543223 0.000091 0.471992
19.544150 -0.000033 1.789359 0.000102 0.507453
18.191877 -0.000062 2.074722 0.000116 0.588168
16.935816 -0.000091 2.405557 0.000133 0.681726
15.769125 -0.000120 2.789116 0.000158 0.790170
14.685448 -0.000150 3.233810 0.000189 0.915870
13.678881 -0.000181 3.749411 0.000230 1.061572
12.743941 -0.000215 4.347191 0.000282 1.230461
11.875532 -0.000252 5.040268 0.000351 1.426229
11.068925 -0.000290 5.843940 0.000433 1.653159
10.319723 -0.000332 6.775729 0.000550 1.916219
9.623848 -0.000376 7.856156 0.000681 2.221171
8.977507 -0.000422 9.109025 0.000864 2.574701
8.377182 -0.000470 10.561771 0.001090 2.984562
7.819602 -0.000520 12.246364 0.001355 3.459758
7.301732 -0.000571 14.199861 0.001696 4.010763
6.820753 -0.000622 16.465324 0.002140 4.649701
6.374047 -0.000675 19.091938 0.002621 5.390672
5.959182 -0.000727 22.137712 0.003166 6.250096
5.573901 -0.000778 25.669238 0.003862 7.247055
5.216109 -0.000827 29.763883 0.004505 8.403719
4.883858 -0.000874 34.509679 0.005268 9.745935
4.575342 -0.000918 40.010003 0.005980 11.303819
4.288883 -0.000957 46.383611 0.006389 13.112473
4.022923 -0.000990 53.765648 0.006480 15.212990
3.776018 -0.001016 62.313537 0.005747 17.653259
3.546824 -0.001034 72.205194 0.003801 20.489290
3.334096 -0.001041 83.646827 -0.000188 23.787076
3.136679 -0.001037 96.873923 -0.007062 27.623847
2.953499 -0.001020 112.158339 -0.017428 32.090360
2.783562 -0.000990 129.809075 -0.034731 37.294259
2.625945 -0.000944 150.192708 -0.059305 43.362491
2.479791 -0.000884 173.731644 -0.091966 50.445512
2.344307 -0.000810 200.937666 -0.135306 58.723433
2.218758 -0.000724 232.420791 -0.189643 68.411255
2.102463 -0.000628 268.955566 -0.256999 79.768294
1.994792 -0.000526 311.475081 -0.333368 93.108305
1.895162 -0.000422 361.199527 -0.417569 108.810929
1.803032 -0.000321 419.645801 -0.500479 127.345920
1.717906 -0.000227 488.791736 -0.579649 149.294789
1.639324 -0.000142 571.187291 -0.644718 175.377715
1.566862 -0.000071 670.029796 -0.691563 206.509634
1.500131 -0.000014 789.519727 -0.726077 243.857160
1.438772 0.000030 935.201460 -0.755599 288.922763
1.382455 0.000060 1114.024608 -0.769125 343.697296
1.330881 0.000078 1335.630829 -0.813535 410.833784
1.283774 0.000088 1612.953431 -0.894879 493.936059
1.240886 0.000090 1963.531054 -1.169177 598.037913
1.201989 0.000087 2412.515937 -1.632834 730.382330
1.166884 0.000080 2996.010671 -2.671297 901.708790
1.135392 0.000072 3768.453788 -4.629917 1128.472640
1.107359 0.000062 4812.835639 -8.564767 1437.354030
1.082656 0.000052 6264.594917 -15.835957 1874.275370
1.061187 0.000042 8352.506090 -31.932510 2524.081631
1.042884 0.000031 11479.584649 -68.126946 3559.982455
1.027722 0.000021 16449.374201 -164.678406 5384.646926
1.015721 0.000013 25009.634965 -483.695862 9119.200869
1.006970 0.000006 41701.712516 -2061.973878 18833.489674
1.001679 0.000001 79931.738315 -15372.745677 54204.616192
1.000000 0.000000 181847.575685 -201022.318856 321478.778436
20.984195 0.804826 1.543223 0.000234 0.471988
19.529475 0.747392 1.789353 0.000261 0.507448
18.178251 0.694061 2.074705 0.000294 0.588163
16.923163 0.644536 2.405534 0.000334 0.681720
15.757377 0.598544 2.789087 0.000383 0.790164
14.674540 0.555830 3.233786 0.000446 0.915863
13.668753 0.516158 3.749341 0.000524 1.061563
12.734537 0.479311 4.347118 0.000614 1.230450
11.866801 0.445086 5.040195 0.000733 1.426217
11.060818 0.413294 5.843793 0.000878 1.653144
10.312197 0.383763 6.775562 0.001050 1.916199
9.616860 0.356331 7.856004 0.001265 2.221144
8.971020 0.330847 9.108788 0.001513 2.574668
8.371160 0.307174 10.561498 0.001809 2.984518
7.814011 0.285182 12.246090 0.002173 3.459704
7.296542 0.264752 14.199555 0.002607 4.010692
6.815936 0.245773 16.464669 0.003030 4.649601
6.369575 0.228144 19.091442 0.003511 5.390541
5.955030 0.211769 22.137300 0.004021 6.249921
5.570047 0.196560 25.668732 0.004393 7.246820
5.212530 0.182435 29.763072 0.004687 8.403414
4.880535 0.169321 34.509387 0.004584 9.745522
4.572256 0.157146 40.010264 0.003834 11.303268
4.286016 0.145846 46.383892 0.002259 13.111752
4.020259 0.135363 53.767216 -0.001011 15.211992
3.773541 0.125640 62.315801 -0.006641 17.651949
3.544520 0.116627 72.210712 -0.015644 20.487592
3.331951 0.108277 83.656953 -0.029575 23.784692
3.134680 0.100544 96.888487 -0.050935 27.620610
2.951635 0.093386 112.176589 -0.081791 32.086114
2.781820 0.086763 129.832627 -0.123755 37.288404
2.624315 0.080637 150.223244 -0.182294 43.354546
2.478264 0.074969 173.767520 -0.259068 50.434847
2.342874 0.069721 200.969732 -0.356663 58.708954
2.217411 0.064856 232.447486 -0.474718 68.391632
2.101194 0.060335 268.941087 -0.609153 79.740938
1.993595 0.056123 311.423349 -0.761359 93.069906
1.894031 0.052183 361.058908 -0.918700 108.758567
1.801963 0.048483 419.402243 -1.065553 127.273592
1.716895 0.044993 488.391620 -1.196741 149.192884
1.638368 0.041689 570.553546 -1.298863 175.235534
1.565958 0.038551 669.156728 -1.360027 206.310069
1.499276 0.035565 788.348196 -1.385636 243.575702
1.437963 0.032720 933.550097 -1.377874 288.526091
1.381690 0.030011 1112.037815 -1.387196 343.130625
1.330157 0.027431 1332.993745 -1.493552 410.014930
1.283089 0.024978 1609.333897 -1.851775 492.744627
1.240235 0.022648 1958.772951 -2.593694 596.294578
1.201370 0.020437 2405.984416 -4.129222 727.775507
1.166292 0.018340 2986.585649 -7.121334 897.685606
1.134823 0.016352 3754.424624 -12.955618 1122.096385
1.106807 0.014466 4791.729847 -24.039323 1426.869280
1.082117 0.012675 6229.161751 -46.209502 1855.954620
1.060651 0.010971 8286.909579 -92.325750 2489.460655
1.042340 0.009349 11359.938614 -196.311113 3486.386668
1.027148 0.007798 16179.151584 -459.123173 5195.715500
1.015070 0.006306 24269.896579 -1245.200864 8469.936775
1.006097 0.004838 38752.496107 -4050.961143 15412.469173
1.000047 0.003252 62106.347090 -13900.141713 27834.964546
0.995861 0.000824 95673.092219 -49047.414026 53794.506685
20.936805 1.608411 1.543219 0.000377 0.471980
19.485471 1.493666 1.789346 0.000419 0.507440
18.137391 1.387117 2.074701 0.000471 0.588154
16.885222 1.288173 2.405514 0.000534 0.681710
15.722146 1.196289 2.789061 0.000611 0.790153
14.641826 1.110956 3.233728 0.000702 0.915849
13.638376 1.031707 3.749287 0.000810 1.061547
12.706329 0.958103 4.347028 0.000951 1.230431
11.840608 0.889742 5.040068 0.001113 1.426192
11.036496 0.826247 5.843631 0.001313 1.653113
10.289612 0.767272 6.775354 0.001548 1.916160
9.595888 0.712493 7.855711 0.001828 2.221095
8.951545 0.661611 9.108442 0.002169 2.574602
8.353075 0.614349 10.561104 0.002544 2.984435
7.797217 0.570448 12.245637 0.003005 3.459596
7.280947 0.529670 14.198912 0.003437 4.010543
6.801452 0.491794 16.464011 0.003960 4.649403
6.356123 0.456614 19.090724 0.004396 5.390284
5.942536 0.423940 22.136354 0.004785 6.249585
5.558440 0.393596 25.668133 0.005019 7.246371
5.201747 0.365417 29.762542 0.004841 8.402811
4.870515 0.339254 34.509310 0.003907 9.744703
4.562942 0.314965 40.011003 0.002078 11.302181
4.277357 0.292421 46.386449 -0.001752 13.110303
4.012205 0.271502 53.772120 -0.008014 15.210039
3.766046 0.252096 62.323539 -0.018256 17.649334
3.537542 0.234099 72.221967 -0.034184 20.484121
3.325450 0.217416 83.672664 -0.058426 23.779956
3.128617 0.201956 96.912212 -0.093562 27.614191
2.945975 0.187633 112.209183 -0.143273 32.077601
2.776532 0.174366 129.874144 -0.212343 37.276885
2.619367 0.162076 150.266720 -0.304610 43.338729
2.473628 0.150688 173.808609 -0.425089 50.413419
2.338524 0.140127 201.002542 -0.575027 58.679663
2.213324 0.130319 232.447968 -0.757821 68.351577
2.097350 0.121192 268.888792 -0.968290 79.686315
1.989974 0.112674 311.250145 -1.192194 92.993735
1.890617 0.104700 360.732433 -1.427128 108.653387
1.798743 0.097207 418.842143 -1.642471 127.127858
1.713856 0.090141 487.545698 -1.827886 148.988485
1.635499 0.083456 569.345872 -1.955809 174.950851
1.563250 0.077114 667.424964 -2.016196 205.911242
1.496720 0.071089 786.076156 -2.021171 243.015026
1.435551 0.065360 930.566328 -1.994658 287.733718
1.379413 0.059912 1108.034990 -2.004851 342.002316
1.328005 0.054736 1327.800278 -2.155337 408.389826
1.281051 0.049822 1602.525224 -2.652356 490.389488
1.238302 0.045160 1949.516916 -3.824840 592.846739
1.199531 0.040741 2392.854658 -6.308346 722.616936
1.164535 0.036554 2968.024270 -11.158315 889.785701
1.133134 0.032585 3727.073222 -20.383157 1109.644615
1.105172 0.028820 4748.194546 -38.179149 1406.481060
1.080517 0.025245 6158.957548 -72.726886 1820.682338
1.059063 0.021843 8166.282108 -144.047855 2423.779079
1.040731 0.018597 11127.134812 -300.990644 3350.902582
1.025462 0.015487 15686.542348 -675.476502 4871.286216
1.013200 0.012472 22997.626425 -1661.874171 7523.881018
1.003821 0.009459 34750.821628 -4400.041633 12105.449684
0.996926 0.006148 50154.545245 -10603.845488 17826.472087
0.991515 0.001683 70435.256031 -24651.031445 25132.899376
20.857903 2.409517 1.543222 0.000518 0.471968
19.412206 2.237639 1.789345 0.000578 0.507428
18.069360 2.078036 2.074680 0.000647 0.588140
16.822051 1.929828 2.405487 0.000731 0.681695
15.663487 1.792194 2.789015 0.000831 0.790135
14.587356 1.664376 3.233665 0.000954 0.915829
13.587795 1.545671 3.749202 0.001105 1.061523
12.659361 1.435425 4.346901 0.001277 1.230402
11.796993 1.333034 5.039911 0.001494 1.426156
10.995995 1.237934 5.843419 0.001742 1.653068
10.252002 1.149606 6.775133 0.002051 1.916103
9.560962 1.067565 7.855451 0.002408 2.221020
8.919112 0.991363 9.108115 0.002802 2.574505
8.322955 0.920584 10.560687 0.003275 2.984310
7.769246 0.854841 12.245004 0.003775 3.459432
7.254968 0.793778 14.198214 0.004343 4.010327
6.777324 0.737062 16.463370 0.004902 4.649118
6.333711 0.684384 19.089862 0.005414 5.389902
5.921717 0.635461 22.135805 0.005732 6.249086
5.539099 0.590026 25.667462 0.005761 7.245693
5.183776 0.547835 29.762266 0.005056 8.401893
4.853813 0.508661 34.509897 0.003500 9.743512
4.547417 0.472293 40.012560 0.000343 11.300570
4.262920 0.438536 46.389403 -0.005299 13.108128
3.998776 0.407210 53.776993 -0.014705 15.207174
3.753548 0.378148 62.334608 -0.029322 17.645458
3.525904 0.351192 72.237508 -0.052148 20.478889
3.314605 0.326199 83.695622 -0.085709 23.772965
3.118503 0.303032 96.945137 -0.134382 27.604765
2.936534 0.281563 112.253258 -0.203652 32.064798
2.767709 0.261670 129.928002 -0.298681 37.259491
2.611112 0.243235 150.330140 -0.426182 43.315284
2.465894 0.226145 173.873191 -0.590288 50.381669
2.331269 0.210288 201.039981 -0.796425 58.635887
2.206508 0.195555 232.434130 -1.045346 68.291363
2.090938 0.181839 268.781290 -1.328796 79.604258
1.983937 0.169035 310.993272 -1.637093 92.880387
1.884926 0.157044 360.242521 -1.946982 108.496132
1.793376 0.145775 418.009426 -2.233802 126.910247
1.708792 0.135147 486.248822 -2.461274 148.685274
1.630721 0.125093 567.471760 -2.613666 174.527320
1.558742 0.115559 664.888079 -2.670435 205.316867
1.492467 0.106502 782.595173 -2.641945 242.177958
1.431538 0.097895 926.068580 -2.570524 286.553695
1.375625 0.089714 1102.111014 -2.520513 340.329099
1.324427 0.081945 1320.177200 -2.681462 405.996967
1.277666 0.074572 1592.459083 -3.269358 486.925383
1.235093 0.067580 1935.697777 -4.834558 587.766701
1.196479 0.060955 2373.858915 -8.089151 715.051342
1.161620 0.054677 2940.966519 -14.445543 878.281514
1.130335 0.048725 3685.848399 -26.487334 1091.644192
1.102464 0.043079 4685.971706 -49.437906 1377.215360
1.077873 0.037713 6057.761654 -94.367017 1770.850757
1.056446 0.032601 7990.769783 -183.724457 2333.178508
1.038091 0.027714 10803.759438 -373.427296 3171.406155
1.022725 0.023013 15025.418588 -799.479838 4475.317546
1.010244 0.018426 21469.017880 -1796.628235 6543.030285
1.000450 0.013795 30913.510820 -4053.491325 9584.133768
0.992915 0.008740 42087.089119 -8013.372091 12855.280594
0.986952 0.002576 56366.704960 -15180.392304 16010.843778
20.747611 3.206907 1.543223 0.000658 0.471953
19.309794 2.978163 1.789334 0.000732 0.507412
17.974263 2.765756 2.074658 0.000820 0.588122
16.733746 2.568513 2.405461 0.000926 0.681675
15.581488 2.385343 2.788966 0.001055 0.790113
14.511213 2.215238 3.233587 0.001206 0.915803
13.517090 2.057261 3.749087 0.001390 1.061492
12.593703 1.910544 4.346751 0.001609 1.230363
11.736023 1.774281 5.039723 0.001867 1.426109
10.939376 1.647723 5.843198 0.002187 1.653009
10.199425 1.530177 6.774776 0.002544 1.916029
9.512137 1.421000 7.855011 0.002975 2.220923
8.873769 1.319595 9.107576 0.003466 2.574379
8.280846 1.225408 10.559996 0.004028 2.984146
7.730138 1.137925 12.244340 0.004628 3.459216
7.218647 1.056670 14.197545 0.005270 4.010044
6.743589 0.981199 16.462454 0.005872 4.648738
6.302376 0.911104 19.089038 0.006355 5.389403
5.892608 0.846004 22.134865 0.006680 6.248421
5.512055 0.785547 25.667032 0.006487 7.244790
5.158645 0.729406 29.762517 0.005567 8.400695
4.830457 0.677278 34.510505 0.003346 9.741915
4.525705 0.628884 40.015194 -0.001049 11.298434
4.242730 0.583963 46.394832 -0.008462 13.105309
3.979994 0.542275 53.786427 -0.020337 15.203358
3.736069 0.503595 62.347216 -0.039757 17.640279
3.509627 0.467718 72.259009 -0.069005 20.472000
3.299438 0.434449 83.727504 -0.112085 23.763739
3.104359 0.403606 96.987180 -0.174635 27.592301
2.923331 0.375020 112.306956 -0.262665 32.047902
2.755371 0.348529 130.000361 -0.384167 37.236629
2.599568 0.323975 150.408114 -0.545569 43.284298
2.455080 0.301209 173.942901 -0.757122 50.339342
2.321124 0.280084 201.093977 -1.021951 58.578243
2.196977 0.260453 232.422465 -1.337100 68.212429
2.081973 0.242175 268.642838 -1.701285 79.495175
1.975494 0.225111 310.642859 -2.094407 92.730558
1.876968 0.209129 359.572743 -2.484863 108.288998
1.785870 0.194109 416.900360 -2.844880 126.622503
1.701711 0.179942 484.549482 -3.126123 148.285878
1.624040 0.166538 564.997118 -3.292895 173.968465
1.552439 0.153826 661.460738 -3.333013 204.534846
1.486521 0.141751 778.085020 -3.234160 241.080439
1.425929 0.130274 920.081907 -3.066607 285.006510
1.370333 0.119368 1094.437231 -2.935327 338.138137
1.319430 0.109010 1310.027014 -3.018021 402.868508
1.272942 0.099182 1578.985721 -3.685755 482.412525
1.230616 0.089864 1917.807491 -5.445036 581.177780
1.192224 0.081034 2349.106225 -9.260261 705.292301
1.157560 0.072665 2905.157320 -16.750347 863.527509
1.126441 0.064731 3633.860412 -31.134987 1068.773296
1.098704 0.057198 4605.124226 -57.974867 1340.535739
1.074208 0.050033 5928.176087 -109.115962 1709.483379
1.052833 0.043199 7774.385027 -209.610056 2224.871311
1.034471 0.036649 10411.626843 -413.468182 2966.836984
1.019018 0.030324 14258.990661 -841.977297 4059.813106
1.006340 0.024121 19876.940055 -1745.308543 5652.728861
0.996218 0.017837 27562.407854 -3497.320717 7756.452584
0.988289 0.011098 36240.509376 -6103.865484 9983.877056
0.982160 0.003504 46966.745715 -10228.340106 11804.052672
20.606098 3.999352 1.543224 0.000796 0.471934
19.178390 3.714098 1.789324 0.000887 0.507392
17.852245 3.449217 2.074637 0.000995 0.588101
16.620443 3.203244 2.405413 0.001122 0.681651
15.476277 2.974823 2.788895 0.001274 0.790085
14.413514 2.762695 3.233509 0.001459 0.915770
13.426367 2.565691 3.748962 0.001676 1.061453
12.509457 2.382730 4.346598 0.001934 1.230316
11.657790 2.212805 5.039521 0.002252 1.426051
10.866728 2.054984 5.842915 0.002615 1.652935
10.131960 1.908403 6.774461 0.003047 1.915934
9.449486 1.772258 7.854547 0.003543 2.220806
8.815587 1.645806 9.107038 0.004131 2.574226
8.226813 1.528356 10.559415 0.004766 2.983942
7.679956 1.419265 12.243494 0.005478 3.458947
7.172040 1.317941 14.196607 0.006175 4.009688
6.700299 1.223831 16.461456 0.006882 4.648270
6.262164 1.136424 19.088101 0.007469 5.388785
5.855253 1.055246 22.134036 0.007734 6.247593
5.477349 0.979856 25.666200 0.007455 7.243690
5.126396 0.909848 29.762231 0.006268 8.399222
4.800485 0.844844 34.511840 0.003386 9.739940
4.497842 0.784493 40.017552 -0.001698 11.295798
4.216821 0.728472 46.400178 -0.010887 13.101796
3.955894 0.676481 53.796496 -0.025691 15.198641
3.713639 0.628239 62.364627 -0.048633 17.633902
3.488741 0.583489 72.285413 -0.083864 20.463446
3.279977 0.541989 83.765421 -0.136282 23.752263
3.086211 0.503513 97.041119 -0.211796 27.576832
2.906392 0.467850 112.379658 -0.319393 32.026984
2.739543 0.434796 130.085535 -0.466692 37.208439
2.584761 0.404160 150.508877 -0.665603 43.245960
2.441208 0.375754 174.045171 -0.923706 50.287047
2.308110 0.349394 201.159696 -1.247386 58.507151
2.184752 0.324901 232.406422 -1.639211 68.115054
2.070472 0.302097 268.477729 -2.086618 79.361005
1.964661 0.280809 310.214706 -2.567806 92.545917
1.866756 0.260871 358.736306 -3.049126 108.033577
1.776236 0.242132 415.499201 -3.480289 126.267508
1.692620 0.224455 482.371363 -3.807225 147.792522
1.615462 0.207727 561.871223 -3.984691 173.281675
1.544346 0.191858 657.201068 -3.971263 203.575482
1.478889 0.176780 772.372238 -3.796224 239.736549
1.418732 0.162447 912.729429 -3.496716 283.112805
1.363545 0.148824 1084.914483 -3.235397 335.460491
1.313024 0.135886 1297.703000 -3.204287 399.058675
1.266888 0.123609 1562.871914 -3.801275 476.942468
1.224884 0.111968 1895.881356 -5.615746 573.237448
1.186781 0.100936 2319.079683 -9.744471 693.592606
1.152372 0.090479 2862.537264 -17.970727 845.964173
1.121471 0.080560 3570.844467 -33.654463 1041.812030
1.093914 0.071138 4509.034488 -62.939357 1298.016462
1.069555 0.062167 5776.058850 -117.661896 1639.877056
1.048266 0.053596 7520.444244 -221.944331 2105.845408
1.029929 0.045364 9970.956047 -424.803903 2753.185663
1.014426 0.037389 13453.844102 -825.047657 3658.928930
1.001614 0.029541 18325.459863 -1593.840880 4892.174609
0.991290 0.021605 24671.752200 -2918.522277 6427.481810
0.983190 0.013280 31735.974043 -4682.983579 8157.080220
0.977129 0.004470 40114.069393 -7233.514843 9463.750177
20.433583 4.785630 1.543225 0.000932 0.471912
19.018199 4.444310 1.789314 0.001038 0.507369
17.703496 4.127366 2.074612 0.001162 0.588075
16.482317 3.833046 2.405367 0.001313 0.681622
15.348014 3.559728 2.788834 0.001492 0.790052
14.294410 3.305904 3.233396 0.001704 0.915732
13.315766 3.070179 3.748822 0.001957 1.061406
12.406751 2.851256 4.346406 0.002261 1.230260
11.562416 2.647932 5.039247 0.002623 1.425982
10.778160 2.459092 5.842552 0.003047 1.652848
10.049712 2.283701 6.773983 0.003549 1.915824
9.373105 2.120799 7.854045 0.004137 2.220664
8.744655 1.969494 9.106367 0.004782 2.574042
8.160938 1.828960 10.558593 0.005524 2.983700
7.618776 1.698430 12.242659 0.006311 3.458631
7.115217 1.577191 14.195516 0.007185 4.009271
6.647521 1.464585 16.460387 0.007950 4.647715
6.213140 1.359998 19.086716 0.008579 5.388050
5.809711 1.262864 22.133021 0.008888 6.246607
5.435037 1.172655 25.665527 0.008506 7.242390
5.087080 1.088884 29.762157 0.007135 8.397485
4.763945 1.011098 34.512586 0.003929 9.737600
4.463876 0.938880 40.021253 -0.002301 11.292684
4.185237 0.871839 46.406803 -0.012619 13.097606
3.926515 0.809618 53.808713 -0.029772 15.193024
3.686300 0.751881 62.383247 -0.056744 17.626418
3.463286 0.698320 72.315007 -0.097396 20.453348
3.256260 0.648646 83.811019 -0.158285 23.738637
3.064097 0.602589 97.104219 -0.246996 27.558464
2.885752 0.559897 112.465338 -0.372667 32.002233
2.720259 0.520328 130.193060 -0.546517 37.175045
2.566721 0.483653 150.628964 -0.781160 43.200562
2.424309 0.449650 174.168040 -1.088600 50.225352
2.292257 0.418100 201.252334 -1.477547 58.423016
2.169857 0.388789 232.412556 -1.946256 67.999904
2.056458 0.361503 268.294585 -2.485867 79.202720
1.951459 0.336036 309.720336 -3.070219 92.327805
1.854306 0.312186 357.739019 -3.645741 107.732409
1.764488 0.289769 413.803224 -4.154445 125.850327
1.681531 0.268620 479.797247 -4.520876 147.212085
1.604996 0.248599 558.160581 -4.686834 172.472739
1.534473 0.229598 652.053144 -4.623940 202.447578
1.469578 0.211538 765.568960 -4.317013 238.159175
1.409955 0.194363 903.868534 -3.854999 280.900802
1.355270 0.178035 1073.519788 -3.354667 332.337294
1.305219 0.162526 1283.101589 -3.151336 394.628543
1.259518 0.147807 1543.753338 -3.576242 470.618971
1.217912 0.133851 1870.518533 -5.358799 564.100629
1.180168 0.120621 2283.773084 -9.599439 680.227791
1.146077 0.108079 2812.776823 -18.166795 826.114475
1.115451 0.096177 3498.693781 -34.359927 1011.698817
1.088124 0.084864 4400.182505 -64.448928 1251.217273
1.063948 0.074081 5605.396547 -119.780792 1565.053199
1.042789 0.063764 7244.989363 -222.254368 1982.221252
1.024524 0.053834 9505.400933 -413.142223 2542.049017
1.009030 0.044190 12632.912210 -767.501206 3290.420848
0.996169 0.034690 16872.994351 -1397.812749 4259.907753
0.985777 0.025132 22220.932017 -2385.889273 5442.608845
0.977692 0.015329 28091.693856 -3593.269918 6909.876908
0.971846 0.005472 34822.618067 -5226.659342 7993.891484
20.230332 5.564529 1.543226 0.001066 0.471886
18.829466 5.167673 1.789300 0.001188 0.507342
17.528242 4.799158 2.074581 0.001331 0.588045
16.319579 4.456948 2.405313 0.001502 0.681589
15.196897 4.139156 2.788747 0.001706 0.790014
14.154082 3.844031 3.233276 0.001949 0.915687
13.185456 3.569949 3.748645 0.002239 1.061354
12.285743 3.315403 4.346171 0.002590 1.230196
11.450045 3.078995 5.038958 0.002992 1.425902
10.673808 2.859428 5.842212 0.003477 1.652749
9.952806 2.655498 6.773572 0.004051 1.915699
9.283113 2.466088 7.853413 0.004704 2.220500
8.661080 2.290163 9.105647 0.005465 2.573828
8.083322 2.126761 10.557689 0.006294 2.983423
7.546691 1.974990 12.241580 0.007230 3.458268
7.048268 1.834023 14.194319 0.008133 4.008788
6.585337 1.703091 16.458887 0.009054 4.647076
6.155378 1.581484 19.085558 0.009802 5.387201
5.756053 1.468539 22.131420 0.010156 6.245480
5.385185 1.363646 25.664665 0.009871 7.240885
5.040759 1.266237 29.762233 0.008197 8.395491
4.720897 1.175785 34.514514 0.004758 9.734923
4.423860 1.091803 40.025278 -0.001994 11.289091
4.148031 1.013840 46.415053 -0.013661 13.092789
3.891909 0.941477 53.822279 -0.033018 15.186559
3.654098 0.874327 62.406618 -0.062853 17.617789
3.433307 0.812029 72.351015 -0.109247 20.441716
3.228332 0.754248 83.861487 -0.178258 23.723005
3.038059 0.700673 97.178188 -0.279028 27.537472
2.861454 0.651010 112.564938 -0.422469 31.973866
2.697560 0.604981 130.324009 -0.623656 37.136677
2.545489 0.562321 150.786462 -0.895975 43.148602
2.404421 0.522772 174.330489 -1.254782 50.154641
2.273599 0.486083 201.382694 -1.710650 58.326599
2.152326 0.452006 232.437387 -2.267162 67.868204
2.039960 0.420292 268.109598 -2.906368 79.021709
1.935911 0.390699 309.165381 -3.598233 92.078379
1.839638 0.362991 356.633935 -4.279945 107.388356
1.750641 0.336946 411.877872 -4.871267 125.373723
1.668457 0.312368 476.740391 -5.281309 146.550601
1.592654 0.289092 553.716219 -5.425430 171.551908
1.522827 0.266991 645.994206 -5.254800 201.164763
1.458597 0.245973 757.624858 -4.779584 236.369451
1.399606 0.225975 893.674217 -4.072147 278.395725
1.345520 0.206957 1060.576921 -3.338966 328.814380
1.296028 0.188887 1266.458093 -2.808141 389.650590
1.250847 0.171736 1522.074324 -2.982755 463.541455
1.209717 0.155472 1841.827441 -4.558895 553.946599
1.172403 0.140053 2244.861545 -8.600498 665.499657
1.138696 0.125431 2758.209788 -17.070026 804.452078
1.108407 0.111549 3418.868067 -33.270516 979.297364
1.081366 0.098346 4281.557417 -62.828557 1201.742800
1.057425 0.085749 5423.098077 -116.135426 1487.798335
1.036449 0.073679 6954.563359 -212.014170 1858.687583
1.018314 0.062043 9028.178245 -384.540464 2340.807031
1.002900 0.050726 11835.786774 -687.334434 2961.379598
0.990087 0.039582 15535.993650 -1188.709099 3739.151772
0.979759 0.028450 20094.967831 -1919.530915 4697.104100
0.971833 0.017280 25091.359134 -2746.229903 6014.793054
0.966300 0.006513 30565.681673 -3807.732198 6999.240493
19.996659 6.334848 1.543221 0.001196 0.471857
18.612483 5.883073 1.789289 0.001334 0.507312
17.326755 5.463559 2.074551 0.001496 0.588012
16.132480 5.073990 2.405261 0.001689 0.681552
15.023157 4.712217 2.788663 0.001918 0.789971
13.992746 4.376248 3.233148 0.002191 0.915637
13.035637 4.064234 3.748485 0.002519 1.061295
12.146619 3.774459 4.345949 0.002907 1.230124
11.320849 3.505331 5.038632 0.003372 1.425812
10.553832 3.255375 5.841780 0.003913 1.652637
9.841391 3.023220 6.772979 0.004547 1.915557
9.179645 2.807596 7.852777 0.005289 2.220316
8.564992 2.607321 9.104838 0.006124 2.573589
7.994084 2.421302 10.556710 0.007077 2.983112
7.463814 2.248523 12.240353 0.008096 3.457858
6.971293 2.088042 14.192913 0.009204 4.008247
6.513842 1.938985 16.457591 0.010255 4.646364
6.088969 1.800540 19.083926 0.011142 5.386245
5.694362 1.671957 22.130331 0.011599 6.244216
5.327873 1.552536 25.663324 0.011389 7.239198
4.987506 1.441633 29.761641 0.009845 8.393217
4.671410 1.338648 34.515201 0.005957 9.731906
4.377862 1.243026 40.028598 -0.001270 11.285058
4.105265 1.154253 46.422310 -0.013870 13.087389
3.852134 1.071852 53.836482 -0.034379 15.179319
3.617092 0.995383 62.431720 -0.067618 17.608062
3.398858 0.924434 72.389500 -0.118114 20.428635
3.196244 0.858627 83.921244 -0.194601 23.705492
3.008148 0.797606 97.264160 -0.306403 27.513939
2.833547 0.741040 112.686047 -0.468128 31.942021
2.671493 0.688613 130.478493 -0.694708 37.093548
2.521110 0.640028 150.973224 -1.006274 43.090279
2.381587 0.594993 174.531544 -1.418539 50.075648
2.252178 0.553225 201.561552 -1.947903 58.218833
2.132195 0.514443 232.523987 -2.596738 67.720745
2.021011 0.478363 267.957011 -3.350534 78.819929
1.918047 0.444707 308.593858 -4.163099 91.800483
1.822777 0.413201 355.388834 -4.964010 107.004322
1.734715 0.383587 409.641553 -5.646487 124.842422
1.653411 0.355635 473.264906 -6.090288 145.814083
1.578445 0.329150 548.648084 -6.191978 170.529595
1.509419 0.303985 639.050470 -5.888103 199.742391
1.445956 0.280036 748.516999 -5.188093 234.386100
1.387698 0.257236 882.011302 -4.201100 275.625218
1.334306 0.235543 1045.829079 -3.105485 324.937447
1.285467 0.214927 1247.868769 -2.222393 384.202223
1.240892 0.195356 1498.298153 -2.007657 455.832216
1.200319 0.176794 1810.401549 -3.202817 542.972979
1.163511 0.159195 2202.267017 -6.847462 649.713777
1.130257 0.142501 2698.385257 -14.887897 781.461471
1.100367 0.126647 3332.859028 -30.279310 945.396369
1.073673 0.111558 4155.168530 -58.236885 1150.940596
1.050026 0.097149 5230.864337 -107.792661 1410.337596
1.029293 0.083327 6655.286173 -194.835307 1738.819799
1.011352 0.069985 8552.000577 -344.156960 2153.685793
0.996097 0.057000 11065.905197 -594.509713 2671.967785
0.983431 0.044237 14313.158399 -985.882929 3310.456791
0.973284 0.031590 18244.983196 -1518.578577 4120.366004
0.965634 0.019157 22534.785852 -2068.922788 5345.756969
0.960475 0.007592 27082.854580 -2753.637702 6284.494278
19.732922 7.095400 1.543228 0.001324 0.471826
18.367583 6.589406 1.789271 0.001477 0.507279
17.099345 6.119545 2.074516 0.001656 0.587976
15.921308 5.683221 2.405201 0.001871 0.681511
14.827062 5.278028 2.788552 0.002125 0.789924
13.810650 4.901736 3.233013 0.002429 0.915582
12.866540 4.552272 3.748277 0.002789 1.061229
11.989591 4.227716 4.345655 0.003221 1.230045
11.175028 3.926286 5.038287 0.003733 1.425714
10.418416 3.646327 5.841299 0.004344 1.652513
9.715636 3.386306 6.772395 0.005045 1.915398
9.062861 3.144798 7.852050 0.005871 2.220114
8.456536 2.920481 9.103864 0.006825 2.573325
7.893361 2.712131 10.555566 0.007875 2.982766
7.370269 2.518609 12.239073 0.009043 3.457409
6.884413 2.338860 14.191514 0.010285 4.007655
6.433148 2.171903 16.455705 0.011496 4.645573
6.014016 2.016832 19.081989 0.012545 5.385195
5.624736 1.872803 22.128285 0.013244 6.242815
5.263190 1.739036 25.662020 0.013071 7.237333
4.927408 1.614805 29.761100 0.011607 8.390717
4.615562 1.499439 34.516214 0.007892 9.728559
4.325955 1.392317 40.032042 0.000420 11.280600
4.057009 1.292863 46.431305 -0.012767 13.081415
3.807260 1.200542 53.852510 -0.035030 15.171319
3.575345 1.114860 62.457942 -0.069914 17.597330
3.360003 1.035360 72.433013 -0.124957 20.414229
3.160058 0.961616 83.988365 -0.207673 23.686165
2.974424 0.893232 97.360398 -0.330647 27.487938
2.802088 0.829838 112.819939 -0.508618 31.906967
2.642115 0.771086 130.660223 -0.762063 37.046301
2.493638 0.716644 151.203925 -1.110593 43.026202
2.355859 0.666190 174.796722 -1.580612 49.988620
2.228042 0.619409 201.811096 -2.188551 58.100753
2.109511 0.575989 232.671246 -2.939687 67.559331
1.999651 0.535614 267.870343 -3.818835 78.598586
1.897901 0.497967 308.038417 -4.772653 91.496227
1.803750 0.462735 354.051891 -5.708759 106.584229
1.716730 0.429622 407.200993 -6.491186 124.262211
1.636410 0.398356 469.290337 -6.964320 145.010466
1.562382 0.368715 542.851347 -7.000904 169.413538
1.494258 0.340528 631.136431 -6.523903 198.192719
1.431664 0.313680 738.228517 -5.539662 232.231594
1.374239 0.288102 869.022182 -4.172707 272.625912
1.321641 0.263753 1029.610453 -2.643870 320.756353
1.273550 0.240605 1227.567998 -1.292278 378.351469
1.229672 0.218627 1472.286740 -0.628869 447.616980
1.189740 0.197781 1776.386340 -1.271753 531.358129
1.153516 0.178015 2156.595555 -4.439935 633.147702
1.120786 0.159262 2635.183238 -11.694831 757.636215
1.091362 0.141447 3243.519924 -25.764429 910.741457
1.065079 0.124480 4022.704596 -51.324432 1099.908345
1.041788 0.108267 5032.584657 -95.999208 1334.357002
1.021361 0.092699 6351.767532 -171.779986 1624.824301
1.003686 0.077661 8084.031539 -297.951929 1982.675599
0.988670 0.063025 10336.158404 -499.013357 2419.706322
0.976246 0.048676 13196.061183 -796.523188 2955.920138
0.966384 0.034579 16622.973252 -1175.618865 3665.084453
0.959101 0.020982 20344.991240 -1526.343429 4831.078246
0.954360 0.008711 24149.514239 -1948.452188 5750.612096
19.439530 7.845010 1.543224 0.001450 0.471791
18.095144 7.285585 1.789257 0.001618 0.507242
16.846360 6.766105 2.074470 0.001815 0.587936
15.686387 6.283703 2.405124 0.002050 0.681466
14.608912 5.835720 2.788458 0.002328 0.789872
13.608073 5.419686 3.232846 0.002664 0.915523
12.678422 5.033314 3.748056 0.003066 1.061158
11.814899 4.674480 4.345376 0.003540 1.229957
11.012803 4.341212 5.037864 0.004100 1.425607